   1   1   1   0
  0.1482975E+02  0.2757716E-09  0.2757716E-09  0.2757716E-09  0.5000000E-15
  1.000000000000000E-004
  CAR 
 fcc Si                                  
     37.97853968     -6.38065157  301     12.69892488      1.00000000
     -6.381  0.0000E+00  0.0000E+00
     -6.233  0.0000E+00  0.0000E+00
     -6.085  0.0000E+00  0.0000E+00
     -5.937  0.0000E+00  0.0000E+00
     -5.789  0.0000E+00  0.0000E+00
     -5.641  0.0000E+00  0.0000E+00
     -5.493  0.0000E+00  0.0000E+00
     -5.346  0.0000E+00  0.0000E+00
     -5.198  0.0000E+00  0.0000E+00
     -5.050  0.0000E+00  0.0000E+00
     -4.902  0.1459E-13  0.2157E-14
     -4.754  0.1790E-07  0.2647E-08
     -4.606  0.3161E-03  0.4674E-04
     -4.458  0.9501E-01  0.1409E-01
     -4.311  0.9045E+00  0.1478E+00
     -4.163  0.9185E+00  0.2837E+00
     -4.015  0.2901E+00  0.3265E+00
     -3.867  0.4833E+00  0.3980E+00
     -3.719  0.3391E+00  0.4481E+00
     -3.571  0.1838E+00  0.4753E+00
     -3.423  0.1788E+00  0.5018E+00
     -3.276  0.2466E+00  0.5382E+00
     -3.128  0.3379E+00  0.5882E+00
     -2.980  0.2091E+00  0.6191E+00
     -2.832  0.1967E+00  0.6482E+00
     -2.684  0.1329E-01  0.6502E+00
     -2.536  0.8874E-01  0.6633E+00
     -2.388  0.2364E+00  0.6982E+00
     -2.240  0.2764E+00  0.7391E+00
     -2.093  0.3663E+00  0.7933E+00
     -1.945  0.4532E-01  0.8000E+00
     -1.797  0.2051E-03  0.8000E+00
     -1.649  0.6770E-03  0.8001E+00
     -1.501  0.7228E-01  0.8108E+00
     -1.353  0.2421E+00  0.8466E+00
     -1.205  0.2312E+00  0.8808E+00
     -1.058  0.3479E+00  0.9322E+00
     -0.910  0.1181E+00  0.9497E+00
     -0.762  0.2146E-02  0.9500E+00
     -0.614  0.7730E-06  0.9500E+00
     -0.466  0.6586E-05  0.9500E+00
     -0.318  0.7571E-02  0.9511E+00
     -0.170  0.2219E+00  0.9839E+00
     -0.023  0.3929E+00  0.1042E+01
      0.125  0.5412E-01  0.1050E+01
      0.273  0.6104E-01  0.1059E+01
      0.421  0.2367E+00  0.1094E+01
      0.569  0.4008E-01  0.1100E+01
      0.717  0.1813E-03  0.1100E+01
      0.865  0.2419E-05  0.1100E+01
      1.013  0.4142E-02  0.1101E+01
      1.160  0.1484E+00  0.1123E+01
      1.308  0.3314E+00  0.1172E+01
      1.456  0.1843E+00  0.1199E+01
      1.604  0.7965E-02  0.1200E+01
      1.752  0.7535E-04  0.1200E+01
      1.900  0.2484E-01  0.1204E+01
      2.048  0.2253E+00  0.1237E+01
      2.195  0.1200E+00  0.1255E+01
      2.343  0.2343E+00  0.1289E+01
      2.491  0.7115E-01  0.1300E+01
      2.639  0.6523E-03  0.1300E+01
      2.787  0.2660E-03  0.1300E+01
      2.935  0.5749E-01  0.1309E+01
      3.083  0.4279E+00  0.1372E+01
      3.231  0.1869E+00  0.1399E+01
      3.378  0.3702E-02  0.1400E+01
      3.526  0.1788E-05  0.1400E+01
      3.674  0.5034E-03  0.1400E+01
      3.822  0.6365E-01  0.1409E+01
      3.970  0.2359E+00  0.1444E+01
      4.118  0.3825E-01  0.1450E+01
      4.266  0.5065E-01  0.1458E+01
      4.413  0.2400E+00  0.1493E+01
      4.561  0.2741E+00  0.1534E+01
      4.709  0.1041E+01  0.1687E+01
      4.857  0.6334E+00  0.1781E+01
      5.005  0.3912E+00  0.1839E+01
      5.153  0.3349E+00  0.1888E+01
      5.301  0.8058E+00  0.2008E+01
      5.448  0.1248E+01  0.2192E+01
      5.596  0.7834E+00  0.2308E+01
      5.744  0.1051E+01  0.2463E+01
      5.892  0.1084E+01  0.2624E+01
      6.040  0.5445E+00  0.2704E+01
      6.188  0.2864E+00  0.2747E+01
      6.336  0.2290E-01  0.2750E+01
      6.484  0.1247E-01  0.2752E+01
      6.631  0.1981E+00  0.2781E+01
      6.779  0.2741E+00  0.2822E+01
      6.927  0.4693E+00  0.2891E+01
      7.075  0.2338E+00  0.2926E+01
      7.223  0.4450E+00  0.2991E+01
      7.371  0.1048E+00  0.3007E+01
      7.519  0.2388E+00  0.3042E+01
      7.666  0.1308E+00  0.3062E+01
      7.814  0.4442E+00  0.3127E+01
      7.962  0.2756E+00  0.3168E+01
      8.110  0.2029E+00  0.3198E+01
      8.258  0.1350E-01  0.3200E+01
      8.406  0.2218E-01  0.3203E+01
      8.554  0.3820E+00  0.3260E+01
      8.701  0.2655E+00  0.3299E+01
      8.849  0.6700E-02  0.3300E+01
      8.997  0.3130E-01  0.3305E+01
      9.145  0.2331E+00  0.3339E+01
      9.293  0.1958E+00  0.3368E+01
      9.441  0.4594E+00  0.3436E+01
      9.589  0.9404E-01  0.3450E+01
      9.737  0.1327E-01  0.3452E+01
      9.884  0.2041E+00  0.3482E+01
     10.032  0.3059E+00  0.3527E+01
     10.180  0.3609E+00  0.3581E+01
     10.328  0.1283E+00  0.3600E+01
     10.476  0.2989E-02  0.3600E+01
     10.624  0.5588E-01  0.3608E+01
     10.772  0.2381E+00  0.3644E+01
     10.919  0.1051E+00  0.3659E+01
     11.067  0.2368E+00  0.3694E+01
     11.215  0.4096E-01  0.3700E+01
     11.363  0.9034E-01  0.3714E+01
     11.511  0.2233E+00  0.3747E+01
     11.659  0.3782E-01  0.3752E+01
     11.807  0.3363E+00  0.3802E+01
     11.954  0.3143E+00  0.3848E+01
     12.102  0.4057E-01  0.3854E+01
     12.250  0.2301E+00  0.3888E+01
     12.398  0.1038E+00  0.3904E+01
     12.546  0.3973E+00  0.3962E+01
     12.694  0.2522E+00  0.4000E+01
     12.842  0.4041E+00  0.4059E+01
     12.990  0.1837E+01  0.4331E+01
     13.137  0.1233E+01  0.4513E+01
     13.285  0.8373E+00  0.4637E+01
     13.433  0.7313E+00  0.4745E+01
     13.581  0.3175E+00  0.4792E+01
     13.729  0.3255E+00  0.4840E+01
     13.877  0.7634E+00  0.4953E+01
     14.025  0.6004E+00  0.5042E+01
     14.172  0.7216E-01  0.5053E+01
     14.320  0.4077E+00  0.5113E+01
     14.468  0.1004E+01  0.5261E+01
     14.616  0.1264E+01  0.5448E+01
     14.764  0.6567E+00  0.5545E+01
     14.912  0.3718E+00  0.5600E+01
     15.060  0.4757E+00  0.5671E+01
     15.207  0.2277E+00  0.5704E+01
     15.355  0.3699E+00  0.5759E+01
     15.503  0.8960E+00  0.5892E+01
     15.651  0.5281E+00  0.5970E+01
     15.799  0.5096E+00  0.6045E+01
     15.947  0.3101E+00  0.6091E+01
     16.095  0.2484E+00  0.6128E+01
     16.243  0.4281E+00  0.6191E+01
     16.390  0.4230E+00  0.6253E+01
     16.538  0.1199E+01  0.6431E+01
     16.686  0.1701E+01  0.6682E+01
     16.834  0.7120E+00  0.6788E+01
     16.982  0.7617E+00  0.6900E+01
     17.130  0.6044E+00  0.6990E+01
     17.278  0.3021E+00  0.7034E+01
     17.425  0.2483E+00  0.7071E+01
     17.573  0.4431E+00  0.7136E+01
     17.721  0.1669E+00  0.7161E+01
     17.869  0.5569E+00  0.7244E+01
     18.017  0.1394E+01  0.7450E+01
     18.165  0.1712E+01  0.7703E+01
     18.313  0.1109E+01  0.7867E+01
     18.460  0.7737E+00  0.7981E+01
     18.608  0.1020E+01  0.8132E+01
     18.756  0.4359E+00  0.8196E+01
     18.904  0.2938E+00  0.8240E+01
     19.052  0.1092E+01  0.8401E+01
     19.200  0.3482E+00  0.8453E+01
     19.348  0.4595E+00  0.8521E+01
     19.496  0.1088E+01  0.8682E+01
     19.643  0.6796E+00  0.8782E+01
     19.791  0.4519E+00  0.8849E+01
     19.939  0.5945E+00  0.8937E+01
     20.087  0.4764E+00  0.9007E+01
     20.235  0.5463E+00  0.9088E+01
     20.383  0.6193E+00  0.9180E+01
     20.531  0.2488E+01  0.9547E+01
     20.678  0.1508E+01  0.9770E+01
     20.826  0.7258E+00  0.9878E+01
     20.974  0.4637E+00  0.9946E+01
     21.122  0.2256E+00  0.9980E+01
     21.270  0.4057E+00  0.1004E+02
     21.418  0.5965E+00  0.1013E+02
     21.566  0.1989E+00  0.1016E+02
     21.714  0.1496E+01  0.1038E+02
     21.861  0.2010E+01  0.1068E+02
     22.009  0.9923E+00  0.1082E+02
     22.157  0.2424E+00  0.1086E+02
     22.305  0.6500E+00  0.1095E+02
     22.453  0.5095E+00  0.1103E+02
     22.601  0.5666E+00  0.1111E+02
     22.749  0.1572E+01  0.1135E+02
     22.896  0.1944E+01  0.1163E+02
     23.044  0.1138E+01  0.1180E+02
     23.192  0.1291E+01  0.1199E+02
     23.340  0.3876E+00  0.1205E+02
     23.488  0.3135E+00  0.1210E+02
     23.636  0.3853E+00  0.1215E+02
     23.784  0.8051E+00  0.1227E+02
     23.931  0.1078E+01  0.1243E+02
     24.079  0.1326E+00  0.1245E+02
     24.227  0.1912E+00  0.1248E+02
     24.375  0.4622E+00  0.1255E+02
     24.523  0.4401E+00  0.1261E+02
     24.671  0.6338E+00  0.1271E+02
     24.819  0.6244E+00  0.1280E+02
     24.967  0.5779E+00  0.1288E+02
     25.114  0.4318E+00  0.1295E+02
     25.262  0.1265E-01  0.1295E+02
     25.410  0.2089E-02  0.1295E+02
     25.558  0.1303E+00  0.1297E+02
     25.706  0.6070E+00  0.1306E+02
     25.854  0.6359E+00  0.1315E+02
     26.002  0.2855E+00  0.1320E+02
     26.149  0.4033E-01  0.1320E+02
     26.297  0.2642E+00  0.1324E+02
     26.445  0.3700E+00  0.1330E+02
     26.593  0.9448E-01  0.1331E+02
     26.741  0.2424E+00  0.1335E+02
     26.889  0.4283E+00  0.1341E+02
     27.037  0.1541E+01  0.1364E+02
     27.184  0.1432E+01  0.1385E+02
     27.332  0.6324E+00  0.1394E+02
     27.480  0.9764E-01  0.1396E+02
     27.628  0.2388E+00  0.1399E+02
     27.776  0.1740E+00  0.1402E+02
     27.924  0.4561E+00  0.1408E+02
     28.072  0.4165E+00  0.1415E+02
     28.220  0.2926E-01  0.1415E+02
     28.367  0.1399E+00  0.1417E+02
     28.515  0.4232E+00  0.1423E+02
     28.663  0.1107E+00  0.1425E+02
     28.811  0.1380E+00  0.1427E+02
     28.959  0.4686E+00  0.1434E+02
     29.107  0.6960E-01  0.1435E+02
     29.255  0.2693E-03  0.1435E+02
     29.402  0.1975E-05  0.1435E+02
     29.550  0.3680E-02  0.1435E+02
     29.698  0.1382E+00  0.1437E+02
     29.846  0.1863E+00  0.1440E+02
     29.994  0.2037E-01  0.1440E+02
     30.142  0.3092E+00  0.1445E+02
     30.290  0.3421E+00  0.1450E+02
     30.437  0.1459E-01  0.1450E+02
     30.585  0.1166E-01  0.1450E+02
     30.733  0.4050E+00  0.1456E+02
     30.881  0.5622E+00  0.1464E+02
     31.029  0.3548E-01  0.1465E+02
     31.177  0.1549E-02  0.1465E+02
     31.325  0.9950E-01  0.1466E+02
     31.473  0.2332E+00  0.1470E+02
     31.620  0.3712E+00  0.1475E+02
     31.768  0.3016E+00  0.1480E+02
     31.916  0.1425E+00  0.1482E+02
     32.064  0.4324E+00  0.1488E+02
     32.212  0.1610E+00  0.1491E+02
     32.360  0.2606E+00  0.1495E+02
     32.508  0.3417E+00  0.1500E+02
     32.655  0.3286E+00  0.1505E+02
     32.803  0.4556E-01  0.1505E+02
     32.951  0.2213E+00  0.1508E+02
     33.099  0.4796E+00  0.1516E+02
     33.247  0.2908E+00  0.1520E+02
     33.395  0.1323E-01  0.1520E+02
     33.543  0.1955E+00  0.1523E+02
     33.690  0.4164E+00  0.1529E+02
     33.838  0.6743E-01  0.1530E+02
     33.986  0.2949E+00  0.1534E+02
     34.134  0.6830E+00  0.1545E+02
     34.282  0.7021E+00  0.1555E+02
     34.430  0.6023E+00  0.1564E+02
     34.578  0.9581E-01  0.1565E+02
     34.726  0.2160E+00  0.1568E+02
     34.873  0.1017E+00  0.1570E+02
     35.021  0.1959E-02  0.1570E+02
     35.169  0.5652E-01  0.1571E+02
     35.317  0.2533E+00  0.1575E+02
     35.465  0.2545E+00  0.1578E+02
     35.613  0.2508E+00  0.1582E+02
     35.761  0.2087E+00  0.1585E+02
     35.908  0.3738E+00  0.1591E+02
     36.056  0.5672E+00  0.1599E+02
     36.204  0.6337E-01  0.1600E+02
     36.352  0.2103E-03  0.1600E+02
     36.500  0.1189E-07  0.1600E+02
     36.648  0.9686E-14  0.1600E+02
     36.796  0.0000E+00  0.1600E+02
     36.943  0.0000E+00  0.1600E+02
     37.091  0.0000E+00  0.1600E+02
     37.239  0.0000E+00  0.1600E+02
     37.387  0.0000E+00  0.1600E+02
     37.535  0.0000E+00  0.1600E+02
     37.683  0.0000E+00  0.1600E+02
     37.831  0.0000E+00  0.1600E+02
     37.979  0.0000E+00  0.1600E+02
     37.97853968     -6.38065157  301     12.69892488      1.00000000
     -6.381  0.0000E+00  0.0000E+00  0.0000E+00  0.0000E+00  0.0000E+00  0.0000E+00  0.0000E+00  0.0000E+00  0.0000E+00
     -6.233  0.0000E+00  0.0000E+00  0.0000E+00  0.0000E+00  0.0000E+00  0.0000E+00  0.0000E+00  0.0000E+00  0.0000E+00
     -6.085  0.0000E+00  0.0000E+00  0.0000E+00  0.0000E+00  0.0000E+00  0.0000E+00  0.0000E+00  0.0000E+00  0.0000E+00
     -5.937  0.0000E+00  0.0000E+00  0.0000E+00  0.0000E+00  0.0000E+00  0.0000E+00  0.0000E+00  0.0000E+00  0.0000E+00
     -5.789  0.0000E+00  0.0000E+00  0.0000E+00  0.0000E+00  0.0000E+00  0.0000E+00  0.0000E+00  0.0000E+00  0.0000E+00
     -5.641  0.0000E+00  0.0000E+00  0.0000E+00  0.0000E+00  0.0000E+00  0.0000E+00  0.0000E+00  0.0000E+00  0.0000E+00
     -5.493  0.0000E+00  0.0000E+00  0.0000E+00  0.0000E+00  0.0000E+00  0.0000E+00  0.0000E+00  0.0000E+00  0.0000E+00
     -5.346  0.0000E+00  0.0000E+00  0.0000E+00  0.0000E+00  0.0000E+00  0.0000E+00  0.0000E+00  0.0000E+00  0.0000E+00
     -5.198  0.0000E+00  0.0000E+00  0.0000E+00  0.0000E+00  0.0000E+00  0.0000E+00  0.0000E+00  0.0000E+00  0.0000E+00
     -5.050  0.0000E+00  0.0000E+00  0.0000E+00  0.0000E+00  0.0000E+00  0.0000E+00  0.0000E+00  0.0000E+00  0.0000E+00
     -4.902  0.5654E-14  0.8524E-33  0.4108E-33  0.1934E-33  0.0000E+00  0.0000E+00  0.0000E+00  0.0000E+00  0.0000E+00
     -4.754  0.6940E-08  0.1808E-14  0.2173E-14  0.1764E-14  0.0000E+00  0.0000E+00  0.0000E+00  0.0000E+00  0.0000E+00
     -4.606  0.1225E-03  0.4241E-09  0.6126E-09  0.3895E-09  0.0000E+00  0.0000E+00  0.0000E+00  0.0000E+00  0.0000E+00
     -4.458  0.3683E-01  0.1681E-05  0.3103E-05  0.1286E-05  0.0000E+00  0.0000E+00  0.0000E+00  0.0000E+00  0.0000E+00
     -4.311  0.3503E+00  0.1574E-03  0.3465E-03  0.8021E-04  0.0000E+00  0.0000E+00  0.0000E+00  0.0000E+00  0.0000E+00
     -4.163  0.3548E+00  0.5925E-03  0.1324E-02  0.1820E-03  0.0000E+00  0.0000E+00  0.0000E+00  0.0000E+00  0.0000E+00
     -4.015  0.1109E+00  0.5971E-03  0.9000E-03  0.4890E-03  0.0000E+00  0.0000E+00  0.0000E+00  0.0000E+00  0.0000E+00
     -3.867  0.1829E+00  0.1243E-02  0.3719E-02  0.5059E-03  0.0000E+00  0.0000E+00  0.0000E+00  0.0000E+00  0.0000E+00
     -3.719  0.1278E+00  0.1474E-02  0.2873E-02  0.6315E-04  0.0000E+00  0.0000E+00  0.0000E+00  0.0000E+00  0.0000E+00
     -3.571  0.6823E-01  0.1204E-02  0.1232E-02  0.1092E-02  0.0000E+00  0.0000E+00  0.0000E+00  0.0000E+00  0.0000E+00
     -3.423  0.6617E-01  0.1067E-02  0.1542E-02  0.1066E-02  0.0000E+00  0.0000E+00  0.0000E+00  0.0000E+00  0.0000E+00
     -3.276  0.8987E-01  0.4532E-03  0.6128E-02  0.3925E-04  0.0000E+00  0.0000E+00  0.0000E+00  0.0000E+00  0.0000E+00
     -3.128  0.1225E+00  0.3408E-02  0.6236E-02  0.3311E-04  0.0000E+00  0.0000E+00  0.0000E+00  0.0000E+00  0.0000E+00
     -2.980  0.7511E-01  0.2635E-02  0.2681E-02  0.1454E-02  0.0000E+00  0.0000E+00  0.0000E+00  0.0000E+00  0.0000E+00
     -2.832  0.7033E-01  0.2251E-02  0.2251E-02  0.2239E-02  0.0000E+00  0.0000E+00  0.0000E+00  0.0000E+00  0.0000E+00
     -2.684  0.4741E-02  0.1393E-03  0.1908E-03  0.1393E-03  0.0000E+00  0.0000E+00  0.0000E+00  0.0000E+00  0.0000E+00
     -2.536  0.3075E-01  0.5985E-06  0.4110E-02  0.1952E-06  0.0000E+00  0.0000E+00  0.0000E+00  0.0000E+00  0.0000E+00
     -2.388  0.8187E-01  0.3042E-03  0.1069E-01  0.6962E-05  0.0000E+00  0.0000E+00  0.0000E+00  0.0000E+00  0.0000E+00
     -2.240  0.9478E-01  0.5889E-02  0.7006E-02  0.9932E-03  0.0000E+00  0.0000E+00  0.0000E+00  0.0000E+00  0.0000E+00
     -2.093  0.1254E+00  0.7318E-02  0.7321E-02  0.4069E-02  0.0000E+00  0.0000E+00  0.0000E+00  0.0000E+00  0.0000E+00
     -1.945  0.1550E-01  0.8013E-03  0.8013E-03  0.7255E-03  0.0000E+00  0.0000E+00  0.0000E+00  0.0000E+00  0.0000E+00
     -1.797  0.7012E-04  0.3525E-05  0.3533E-05  0.3490E-05  0.0000E+00  0.0000E+00  0.0000E+00  0.0000E+00  0.0000E+00
     -1.649  0.2198E-03  0.2909E-09  0.4818E-04  0.2906E-09  0.0000E+00  0.0000E+00  0.0000E+00  0.0000E+00  0.0000E+00
     -1.501  0.2347E-01  0.2478E-06  0.5144E-02  0.2477E-06  0.0000E+00  0.0000E+00  0.0000E+00  0.0000E+00  0.0000E+00
     -1.353  0.7865E-01  0.2230E-03  0.1678E-01  0.2220E-03  0.0000E+00  0.0000E+00  0.0000E+00  0.0000E+00  0.0000E+00
     -1.205  0.7531E-01  0.4917E-02  0.7220E-02  0.4335E-02  0.0000E+00  0.0000E+00  0.0000E+00  0.0000E+00  0.0000E+00
     -1.058  0.1125E+00  0.1116E-01  0.1117E-01  0.3340E-02  0.0000E+00  0.0000E+00  0.0000E+00  0.0000E+00  0.0000E+00
     -0.910  0.3797E-01  0.4419E-02  0.4419E-02  0.9307E-04  0.0000E+00  0.0000E+00  0.0000E+00  0.0000E+00  0.0000E+00
     -0.762  0.6895E-03  0.8128E-04  0.8128E-04  0.5210E-07  0.0000E+00  0.0000E+00  0.0000E+00  0.0000E+00  0.0000E+00
     -0.614  0.2483E-06  0.2928E-07  0.2929E-07  0.4468E-12  0.0000E+00  0.0000E+00  0.0000E+00  0.0000E+00  0.0000E+00
     -0.466  0.1962E-05  0.9430E-09  0.6537E-06  0.9428E-09  0.0000E+00  0.0000E+00  0.0000E+00  0.0000E+00  0.0000E+00
     -0.318  0.2259E-02  0.9083E-05  0.7326E-03  0.9083E-05  0.0000E+00  0.0000E+00  0.0000E+00  0.0000E+00  0.0000E+00
     -0.170  0.6681E-01  0.1516E-02  0.1854E-01  0.1516E-02  0.0000E+00  0.0000E+00  0.0000E+00  0.0000E+00  0.0000E+00
     -0.023  0.1204E+00  0.7075E-02  0.2249E-01  0.7075E-02  0.0000E+00  0.0000E+00  0.0000E+00  0.0000E+00  0.0000E+00
      0.125  0.1681E-01  0.1463E-02  0.1982E-02  0.1439E-02  0.0000E+00  0.0000E+00  0.0000E+00  0.0000E+00  0.0000E+00
      0.273  0.1817E-01  0.3132E-02  0.3132E-02  0.8109E-05  0.0000E+00  0.0000E+00  0.0000E+00  0.0000E+00  0.0000E+00
      0.421  0.7045E-01  0.1217E-01  0.1217E-01  0.8258E-09  0.0000E+00  0.0000E+00  0.0000E+00  0.0000E+00  0.0000E+00
      0.569  0.1193E-01  0.2060E-02  0.2060E-02  0.6456E-11  0.0000E+00  0.0000E+00  0.0000E+00  0.0000E+00  0.0000E+00
      0.717  0.5397E-04  0.9321E-05  0.9321E-05  0.7105E-12  0.0000E+00  0.0000E+00  0.0000E+00  0.0000E+00  0.0000E+00
      0.865  0.7569E-06  0.7740E-07  0.7741E-07  0.7669E-07  0.0000E+00  0.0000E+00  0.0000E+00  0.0000E+00  0.0000E+00
      1.013  0.1296E-02  0.1320E-03  0.1324E-03  0.1320E-03  0.0000E+00  0.0000E+00  0.0000E+00  0.0000E+00  0.0000E+00
      1.160  0.4624E-01  0.4582E-02  0.5217E-02  0.4582E-02  0.0000E+00  0.0000E+00  0.0000E+00  0.0000E+00  0.0000E+00
      1.308  0.9678E-01  0.5782E-02  0.2592E-01  0.5782E-02  0.0000E+00  0.0000E+00  0.0000E+00  0.0000E+00  0.0000E+00
      1.456  0.4957E-01  0.2867E-03  0.2382E-01  0.2867E-03  0.0000E+00  0.0000E+00  0.0000E+00  0.0000E+00  0.0000E+00
      1.604  0.2124E-02  0.3086E-06  0.1068E-02  0.3084E-06  0.0000E+00  0.0000E+00  0.0000E+00  0.0000E+00  0.0000E+00
      1.752  0.2078E-04  0.4370E-05  0.5407E-05  0.5208E-11  0.0000E+00  0.0000E+00  0.0000E+00  0.0000E+00  0.0000E+00
      1.900  0.6878E-02  0.1605E-02  0.1605E-02  0.3115E-11  0.0000E+00  0.0000E+00  0.0000E+00  0.0000E+00  0.0000E+00
      2.048  0.6240E-01  0.1455E-01  0.1455E-01  0.2823E-10  0.0000E+00  0.0000E+00  0.0000E+00  0.0000E+00  0.0000E+00
      2.195  0.3928E-01  0.5622E-02  0.5622E-02  0.1091E-10  0.0000E+00  0.0000E+00  0.0000E+00  0.0000E+00  0.0000E+00
      2.343  0.1076E+00  0.6851E-04  0.6851E-04  0.1329E-12  0.0000E+00  0.0000E+00  0.0000E+00  0.0000E+00  0.0000E+00
      2.491  0.3273E-01  0.1535E-07  0.1535E-07  0.3788E-16  0.0000E+00  0.0000E+00  0.0000E+00  0.0000E+00  0.0000E+00
      2.639  0.3001E-03  0.2846E-10  0.4226E-08  0.2841E-10  0.0000E+00  0.0000E+00  0.0000E+00  0.0000E+00  0.0000E+00
      2.787  0.5566E-04  0.1439E-05  0.4667E-04  0.1439E-05  0.0000E+00  0.0000E+00  0.0000E+00  0.0000E+00  0.0000E+00
      2.935  0.1030E-01  0.1151E-02  0.9526E-02  0.1151E-02  0.0000E+00  0.0000E+00  0.0000E+00  0.0000E+00  0.0000E+00
      3.083  0.5243E-01  0.2034E-01  0.6299E-01  0.2034E-01  0.0000E+00  0.0000E+00  0.0000E+00  0.0000E+00  0.0000E+00
      3.231  0.1163E-01  0.1437E-01  0.2383E-01  0.1437E-01  0.0000E+00  0.0000E+00  0.0000E+00  0.0000E+00  0.0000E+00
      3.378  0.7272E-04  0.3612E-03  0.4204E-03  0.3612E-03  0.0000E+00  0.0000E+00  0.0000E+00  0.0000E+00  0.0000E+00
      3.526  0.2723E-07  0.1853E-06  0.1917E-06  0.1801E-06  0.0000E+00  0.0000E+00  0.0000E+00  0.0000E+00  0.0000E+00
      3.674  0.1381E-03  0.3662E-04  0.3662E-04  0.1453E-11  0.0000E+00  0.0000E+00  0.0000E+00  0.0000E+00  0.0000E+00
      3.822  0.1746E-01  0.4631E-02  0.4631E-02  0.1107E-10  0.0000E+00  0.0000E+00  0.0000E+00  0.0000E+00  0.0000E+00
      3.970  0.6471E-01  0.1716E-01  0.1716E-01  0.2338E-08  0.0000E+00  0.0000E+00  0.0000E+00  0.0000E+00  0.0000E+00
      4.118  0.1046E-01  0.2784E-02  0.2784E-02  0.2242E-04  0.0000E+00  0.0000E+00  0.0000E+00  0.0000E+00  0.0000E+00
      4.266  0.7390E-02  0.3800E-02  0.3800E-02  0.3788E-02  0.0000E+00  0.0000E+00  0.0000E+00  0.0000E+00  0.0000E+00
      4.413  0.3464E-01  0.1787E-01  0.1852E-01  0.1787E-01  0.0000E+00  0.0000E+00  0.0000E+00  0.0000E+00  0.0000E+00
      4.561  0.7121E-02  0.3673E-02  0.8455E-01  0.3673E-02  0.0000E+00  0.0000E+00  0.0000E+00  0.0000E+00  0.0000E+00
      4.709  0.4062E-04  0.2095E-04  0.3735E+00  0.2095E-04  0.0000E+00  0.0000E+00  0.0000E+00  0.0000E+00  0.0000E+00
      4.857  0.4111E-08  0.2154E-08  0.2265E+00  0.2154E-08  0.0000E+00  0.0000E+00  0.0000E+00  0.0000E+00  0.0000E+00
      5.005  0.4547E-05  0.4718E-09  0.1390E+00  0.4718E-09  0.0000E+00  0.0000E+00  0.0000E+00  0.0000E+00  0.0000E+00
      5.153  0.7012E-02  0.1155E-05  0.1131E+00  0.1155E-05  0.0000E+00  0.0000E+00  0.0000E+00  0.0000E+00  0.0000E+00
      5.301  0.2485E+00  0.1007E-03  0.9588E-01  0.1007E-03  0.0000E+00  0.0000E+00  0.0000E+00  0.0000E+00  0.0000E+00
      5.448  0.4758E+00  0.6800E-03  0.8020E-01  0.6824E-03  0.0000E+00  0.0000E+00  0.0000E+00  0.0000E+00  0.0000E+00
      5.596  0.2497E+00  0.1418E-02  0.8539E-01  0.3932E-02  0.0000E+00  0.0000E+00  0.0000E+00  0.0000E+00  0.0000E+00
      5.744  0.3176E+00  0.9850E-02  0.7512E-01  0.6549E-01  0.0000E+00  0.0000E+00  0.0000E+00  0.0000E+00  0.0000E+00
      5.892  0.3748E+00  0.1247E-01  0.5861E-01  0.5957E-01  0.0000E+00  0.0000E+00  0.0000E+00  0.0000E+00  0.0000E+00
      6.040  0.2454E+00  0.8246E-02  0.9152E-02  0.9671E-02  0.0000E+00  0.0000E+00  0.0000E+00  0.0000E+00  0.0000E+00
      6.188  0.6671E-01  0.1712E-01  0.1707E-01  0.1713E-01  0.0000E+00  0.0000E+00  0.0000E+00  0.0000E+00  0.0000E+00
      6.336  0.3443E-02  0.1731E-02  0.1730E-02  0.1737E-02  0.0000E+00  0.0000E+00  0.0000E+00  0.0000E+00  0.0000E+00
      6.484  0.8000E-05  0.4292E-05  0.4278E-05  0.4188E-02  0.0000E+00  0.0000E+00  0.0000E+00  0.0000E+00  0.0000E+00
      6.631  0.1244E-03  0.1588E-03  0.7942E-04  0.6638E-01  0.0000E+00  0.0000E+00  0.0000E+00  0.0000E+00  0.0000E+00
      6.779  0.1286E-01  0.1643E-01  0.8214E-02  0.5074E-01  0.0000E+00  0.0000E+00  0.0000E+00  0.0000E+00  0.0000E+00
      6.927  0.4086E-01  0.5158E-01  0.2614E-01  0.2677E-01  0.0000E+00  0.0000E+00  0.0000E+00  0.0000E+00  0.0000E+00
      7.075  0.3338E-01  0.1515E-01  0.2397E-01  0.1166E-01  0.0000E+00  0.0000E+00  0.0000E+00  0.0000E+00  0.0000E+00
      7.223  0.5124E-01  0.3355E-01  0.3753E-01  0.3352E-01  0.0000E+00  0.0000E+00  0.0000E+00  0.0000E+00  0.0000E+00
      7.371  0.1692E-01  0.9321E-02  0.6176E-02  0.5978E-02  0.0000E+00  0.0000E+00  0.0000E+00  0.0000E+00  0.0000E+00
      7.519  0.6638E-01  0.1704E-01  0.1701E-01  0.1930E-03  0.0000E+00  0.0000E+00  0.0000E+00  0.0000E+00  0.0000E+00
      7.666  0.1513E-01  0.5887E-02  0.3769E-02  0.2268E-01  0.0000E+00  0.0000E+00  0.0000E+00  0.0000E+00  0.0000E+00
      7.814  0.6118E-02  0.2924E-01  0.2349E-03  0.1062E+00  0.0000E+00  0.0000E+00  0.0000E+00  0.0000E+00  0.0000E+00
      7.962  0.1825E-01  0.2642E-01  0.1009E-01  0.3893E-01  0.0000E+00  0.0000E+00  0.0000E+00  0.0000E+00  0.0000E+00
      8.110  0.2485E-01  0.1694E-01  0.1663E-01  0.1700E-01  0.0000E+00  0.0000E+00  0.0000E+00  0.0000E+00  0.0000E+00
      8.258  0.1671E-02  0.1121E-02  0.1119E-02  0.1119E-02  0.0000E+00  0.0000E+00  0.0000E+00  0.0000E+00  0.0000E+00
      8.406  0.3819E-02  0.2461E-02  0.1069E-02  0.1393E-02  0.0000E+00  0.0000E+00  0.0000E+00  0.0000E+00  0.0000E+00
      8.554  0.6202E-01  0.4330E-01  0.1699E-01  0.2631E-01  0.0000E+00  0.0000E+00  0.0000E+00  0.0000E+00  0.0000E+00
      8.701  0.4079E-01  0.3065E-01  0.1093E-01  0.1971E-01  0.0000E+00  0.0000E+00  0.0000E+00  0.0000E+00  0.0000E+00
      8.849  0.9452E-03  0.7774E-03  0.2459E-03  0.5655E-03  0.0000E+00  0.0000E+00  0.0000E+00  0.0000E+00  0.0000E+00
      8.997  0.4467E-06  0.4307E-06  0.1103E-06  0.9878E-02  0.0000E+00  0.0000E+00  0.0000E+00  0.0000E+00  0.0000E+00
      9.145  0.7859E-04  0.1574E-03  0.2969E-04  0.7335E-01  0.0000E+00  0.0000E+00  0.0000E+00  0.0000E+00  0.0000E+00
      9.293  0.1123E-01  0.1277E-01  0.7852E-02  0.3616E-01  0.0000E+00  0.0000E+00  0.0000E+00  0.0000E+00  0.0000E+00
      9.441  0.5889E-01  0.3275E-01  0.5391E-01  0.3297E-01  0.0000E+00  0.0000E+00  0.0000E+00  0.0000E+00  0.0000E+00
      9.589  0.1546E-01  0.3578E-02  0.1602E-01  0.3576E-02  0.0000E+00  0.0000E+00  0.0000E+00  0.0000E+00  0.0000E+00
      9.737  0.3170E-02  0.1384E-02  0.1516E-02  0.1013E-04  0.0000E+00  0.0000E+00  0.0000E+00  0.0000E+00  0.0000E+00
      9.884  0.4835E-01  0.2215E-01  0.2215E-01  0.6083E-03  0.0000E+00  0.0000E+00  0.0000E+00  0.0000E+00  0.0000E+00
     10.032  0.4764E-01  0.3071E-01  0.2870E-01  0.1702E-01  0.0000E+00  0.0000E+00  0.0000E+00  0.0000E+00  0.0000E+00
     10.180  0.2539E-01  0.4478E-01  0.1453E-01  0.4448E-01  0.0000E+00  0.0000E+00  0.0000E+00  0.0000E+00  0.0000E+00
     10.328  0.6003E-02  0.1909E-01  0.5061E-03  0.1909E-01  0.0000E+00  0.0000E+00  0.0000E+00  0.0000E+00  0.0000E+00
     10.476  0.1162E-03  0.3960E-03  0.3728E-06  0.5105E-03  0.0000E+00  0.0000E+00  0.0000E+00  0.0000E+00  0.0000E+00
     10.624  0.5099E-07  0.1737E-06  0.3489E-10  0.1709E-01  0.0000E+00  0.0000E+00  0.0000E+00  0.0000E+00  0.0000E+00
     10.772  0.1643E-04  0.7375E-04  0.1304E-09  0.7274E-01  0.0000E+00  0.0000E+00  0.0000E+00  0.0000E+00  0.0000E+00
     10.919  0.2188E-02  0.9826E-02  0.3289E-10  0.2329E-01  0.0000E+00  0.0000E+00  0.0000E+00  0.0000E+00  0.0000E+00
     11.067  0.8469E-02  0.3803E-01  0.3698E-07  0.3810E-01  0.0000E+00  0.0000E+00  0.0000E+00  0.0000E+00  0.0000E+00
     11.215  0.1656E-02  0.6554E-02  0.1556E-03  0.6399E-02  0.0000E+00  0.0000E+00  0.0000E+00  0.0000E+00  0.0000E+00
     11.363  0.1801E-01  0.1213E-01  0.1210E-01  0.2872E-04  0.0000E+00  0.0000E+00  0.0000E+00  0.0000E+00  0.0000E+00
     11.511  0.4459E-01  0.2997E-01  0.2997E-01  0.1786E-05  0.0000E+00  0.0000E+00  0.0000E+00  0.0000E+00  0.0000E+00
     11.659  0.5849E-02  0.4776E-02  0.4581E-02  0.1623E-02  0.0000E+00  0.0000E+00  0.0000E+00  0.0000E+00  0.0000E+00
     11.807  0.3262E-01  0.3214E-01  0.4302E-01  0.3213E-01  0.0000E+00  0.0000E+00  0.0000E+00  0.0000E+00  0.0000E+00
     11.954  0.3500E-01  0.2507E-01  0.4810E-01  0.2507E-01  0.0000E+00  0.0000E+00  0.0000E+00  0.0000E+00  0.0000E+00
     12.102  0.3671E-02  0.3528E-02  0.4893E-02  0.3528E-02  0.0000E+00  0.0000E+00  0.0000E+00  0.0000E+00  0.0000E+00
     12.250  0.1747E-01  0.2227E-01  0.2227E-01  0.2227E-01  0.0000E+00  0.0000E+00  0.0000E+00  0.0000E+00  0.0000E+00
     12.398  0.6055E-02  0.1027E-01  0.7557E-02  0.1400E-01  0.0000E+00  0.0000E+00  0.0000E+00  0.0000E+00  0.0000E+00
     12.546  0.1962E-02  0.4108E-01  0.7880E-04  0.1000E+00  0.0000E+00  0.0000E+00  0.0000E+00  0.0000E+00  0.0000E+00
     12.694  0.1168E-02  0.2606E-01  0.1501E-07  0.6377E-01  0.0000E+00  0.0000E+00  0.0000E+00  0.0000E+00  0.0000E+00
     12.842  0.2558E-04  0.9633E-01  0.7206E-06  0.9717E-01  0.0000E+00  0.0000E+00  0.0000E+00  0.0000E+00  0.0000E+00
     12.990  0.8952E-03  0.4406E+00  0.9438E-03  0.4396E+00  0.0000E+00  0.0000E+00  0.0000E+00  0.0000E+00  0.0000E+00
     13.137  0.2439E-01  0.2825E+00  0.2571E-01  0.2568E+00  0.0000E+00  0.0000E+00  0.0000E+00  0.0000E+00  0.0000E+00
     13.285  0.2505E-01  0.1864E+00  0.2641E-01  0.1600E+00  0.0000E+00  0.0000E+00  0.0000E+00  0.0000E+00  0.0000E+00
     13.433  0.9790E-03  0.1731E+00  0.1032E-02  0.1720E+00  0.0000E+00  0.0000E+00  0.0000E+00  0.0000E+00  0.0000E+00
     13.581  0.8025E-06  0.7530E-01  0.8947E-06  0.7530E-01  0.0000E+00  0.0000E+00  0.0000E+00  0.0000E+00  0.0000E+00
     13.729  0.1612E-09  0.7676E-01  0.2295E-03  0.7654E-01  0.0000E+00  0.0000E+00  0.0000E+00  0.0000E+00  0.0000E+00
     13.877  0.1220E-08  0.1789E+00  0.1980E-01  0.1591E+00  0.0000E+00  0.0000E+00  0.0000E+00  0.0000E+00  0.0000E+00
     14.025  0.5057E-05  0.1411E+00  0.5344E-01  0.8765E-01  0.0000E+00  0.0000E+00  0.0000E+00  0.0000E+00  0.0000E+00
     14.172  0.2853E-02  0.1264E-01  0.1170E-01  0.6475E-02  0.0000E+00  0.0000E+00  0.0000E+00  0.0000E+00  0.0000E+00
     14.320  0.3763E-01  0.8499E-03  0.7304E-01  0.8580E-03  0.0000E+00  0.0000E+00  0.0000E+00  0.0000E+00  0.0000E+00
     14.468  0.2880E-01  0.4188E-01  0.5636E-01  0.5027E-01  0.0000E+00  0.0000E+00  0.0000E+00  0.0000E+00  0.0000E+00
     14.616  0.9638E-02  0.1354E+00  0.2391E-01  0.1981E+00  0.0000E+00  0.0000E+00  0.0000E+00  0.0000E+00  0.0000E+00
     14.764  0.1185E-02  0.7889E-01  0.5356E-01  0.5015E-01  0.0000E+00  0.0000E+00  0.0000E+00  0.0000E+00  0.0000E+00
     14.912  0.2749E-02  0.2413E-01  0.2322E-01  0.1172E-02  0.0000E+00  0.0000E+00  0.0000E+00  0.0000E+00  0.0000E+00
     15.060  0.2974E-01  0.4571E-01  0.3991E-01  0.5803E-02  0.0000E+00  0.0000E+00  0.0000E+00  0.0000E+00  0.0000E+00
     15.207  0.1602E-01  0.2187E-01  0.1898E-01  0.2891E-02  0.0000E+00  0.0000E+00  0.0000E+00  0.0000E+00  0.0000E+00
     15.355  0.1758E-01  0.1382E-01  0.2991E-03  0.1352E-01  0.0000E+00  0.0000E+00  0.0000E+00  0.0000E+00  0.0000E+00
     15.503  0.2050E-01  0.1017E+00  0.8731E-04  0.1016E+00  0.0000E+00  0.0000E+00  0.0000E+00  0.0000E+00  0.0000E+00
     15.651  0.2736E-01  0.5565E-01  0.1303E-01  0.4262E-01  0.0000E+00  0.0000E+00  0.0000E+00  0.0000E+00  0.0000E+00
     15.799  0.3102E-01  0.5640E-01  0.5544E-01  0.9631E-03  0.0000E+00  0.0000E+00  0.0000E+00  0.0000E+00  0.0000E+00
     15.947  0.3235E-01  0.1034E-01  0.1028E-01  0.6671E-04  0.0000E+00  0.0000E+00  0.0000E+00  0.0000E+00  0.0000E+00
     16.095  0.2837E-01  0.9237E-04  0.5178E-04  0.4059E-04  0.0000E+00  0.0000E+00  0.0000E+00  0.0000E+00  0.0000E+00
     16.243  0.2645E-01  0.9376E-04  0.3899E-06  0.9375E-04  0.0000E+00  0.0000E+00  0.0000E+00  0.0000E+00  0.0000E+00
     16.390  0.5090E-01  0.9638E-03  0.1029E-02  0.9553E-03  0.0000E+00  0.0000E+00  0.0000E+00  0.0000E+00  0.0000E+00
     16.538  0.2181E+00  0.4430E-01  0.5323E-01  0.4394E-01  0.0000E+00  0.0000E+00  0.0000E+00  0.0000E+00  0.0000E+00
     16.686  0.2490E+00  0.1030E+00  0.9709E-01  0.1126E+00  0.0000E+00  0.0000E+00  0.0000E+00  0.0000E+00  0.0000E+00