    1    1    1    1
  0.1482975E+02  0.2757716E-09  0.2757716E-09  0.2757716E-09  0.5000000E-15
  1.000000000000000E-004
  CAR 
 fcc Si                                  
      4     40      8
 
  0.5000000E+00  0.5000000E+00  0.5000000E+00  0.2500000E-01
    1        2.286870   1.000000
    2        3.065943   1.000000
    3       18.025177   0.000000
    4       18.025177   0.000000
    5       20.705660   0.000000
    6       20.705660   0.000000
    7       22.869055   0.000000
    8       25.587363   0.000000
 
  0.4444444E+00  0.4444444E+00  0.4444444E+00  0.2500000E-01
    1        1.171593   1.000000
    2        4.338781   1.000000
    3       18.019449   0.000000
    4       18.019449   0.000000
    5       20.858917   0.000000
    6       20.858917   0.000000
    7       22.826336   0.000000
    8       25.773153   0.000000
 
  0.3888889E+00  0.3888889E+00  0.3888889E+00  0.2500000E-01
    1       -0.097609   1.000000
    2        6.081633   1.000000
    3       18.026820   0.000000
    4       18.026820   0.000000
    5       21.291090   0.000000
    6       21.291090   0.000000
    7       22.749818   0.000000
    8       26.284134   0.000000
 
  0.3333333E+00  0.3333333E+00  0.3333333E+00  0.2500000E-01
    1       -1.217943   1.000000
    2        7.986152   1.000000
    3       18.094087   0.000000
    4       18.094087   0.000000
    5       21.940586   0.000000
    6       21.940586   0.000000
    7       22.684564   0.000000
    8       27.034493   0.000000
 
  0.2777778E+00  0.2777778E+00  0.2777778E+00  0.2500000E-01
    1       -2.173688   1.000000
    2       10.029666   1.000000
    3       18.253301   0.000000
    4       18.253301   0.000000
    5       22.669282   0.000000
    6       22.728081   0.000000
    7       22.728081   0.000000
    8       27.952020   0.000000
 
  0.2222222E+00  0.2222222E+00  0.2222222E+00  0.2500000E-01
    1       -2.959066   1.000000
    2       12.198734   1.000000
    3       18.534341   0.000000
    4       18.534341   0.000000
    5       22.739907   0.000000
    6       23.494770   0.000000
    7       23.494770   0.000000
    8       27.163190   0.000000
 
  0.1666667E+00  0.1666667E+00  0.1666667E+00  0.2500000E-01
    1       -3.572393   1.000000
    2       14.467858   0.000000
    3       18.941533   0.000000
    4       18.941533   0.000000
    5       22.827301   0.000000
    6       23.758347   0.000000
    7       23.758347   0.000000
    8       26.656212   0.000000
 
  0.1111111E+00  0.1111111E+00  0.1111111E+00  0.2500000E-01
    1       -4.011775   1.000000
    2       16.788107   0.000000
    3       19.469966   0.000000
    4       19.469966   0.000000
    5       22.823491   0.000000
    6       23.139559   0.000000
    7       23.139559   0.000000
    8       27.201052   0.000000
 
  0.5555556E-01  0.5555556E-01  0.5555556E-01  0.2500000E-01
    1       -4.275930   1.000000
    2       19.017477   0.000000
    3       20.078513   0.000000
    4       20.078513   0.000000
    5       22.271910   0.000000
    6       22.271910   0.000000
    7       22.466193   0.000000
    8       27.807877   0.000000
 
  0.0000000E+00  0.0000000E+00  0.0000000E+00  0.2500000E-01
    1       -4.364325   1.000000
    2       20.480019   0.000000
    3       20.480246   0.000000
    4       20.480246   0.000000
    5       21.725078   0.000000
    6       21.725285   0.000000
    7       21.725285   0.000000
    8       27.080152   0.000000
 
  0.0000000E+00  0.0000000E+00  0.0000000E+00  0.2500000E-01
    1       -4.364325   1.000000
    2       20.480019   0.000000
    3       20.480246   0.000000
    4       20.480246   0.000000
    5       21.725078   0.000000
    6       21.725285   0.000000
    7       21.725285   0.000000
    8       27.080150   0.000000
 
  0.0000000E+00  0.5555556E-01  0.5555556E-01  0.2500000E-01
    1       -4.246468   1.000000
    2       19.328897   0.000000
    3       19.329053   0.000000
    4       20.201762   0.000000
    5       21.108482   0.000000
    6       23.075829   0.000000
    7       23.075855   0.000000
    8       27.252572   0.000000
 
  0.0000000E+00  0.1111111E+00  0.1111111E+00  0.2500000E-01
    1       -3.894347   1.000000
    2       17.878900   0.000000
    3       17.879039   0.000000
    4       19.438608   0.000000
    5       19.802880   0.000000
    6       24.678312   0.000000
    7       24.952129   0.000000
    8       24.952161   0.000000
 
  0.0000000E+00  0.1666667E+00  0.1666667E+00  0.2500000E-01
    1       -3.308856   1.000000
    2       16.576677   0.000000
    3       16.576805   0.000000
    4       18.270241   0.000000
    5       18.454959   0.000000
    6       21.945749   0.000000
    7       26.912647   0.000000
    8       26.912715   0.000000
 
  0.0000000E+00  0.2222222E+00  0.2222222E+00  0.2500000E-01
    1       -2.491914   1.000000
    2       15.461248   0.000000
    3       15.461367   0.000000
    4       16.565359   0.000000
    5       17.244384   0.000000
    6       19.795116   0.000000
    7       28.869494   0.000000
    8       28.869579   0.000000
 
  0.0000000E+00  0.2777778E+00  0.2777778E+00  0.2500000E-01
    1       -1.445514   1.000000
    2       14.290789   0.000000
    3       14.538495   0.000000
    4       14.538640   0.000000
    5       16.204751   0.000000
    6       18.414435   0.000000
    7       30.737724   0.000000
    8       30.739340   0.000000
 
  0.0000000E+00  0.3333333E+00  0.3333333E+00  0.2500000E-01
    1       -0.175138   1.000000
    2       11.811987   1.000000
    3       13.820674   0.000000
    4       13.820812   0.000000
    5       15.401757   0.000000
    6       17.519524   0.000000
    7       32.021439   0.000000
    8       32.469072   0.000000
 
  0.0000000E+00  0.3888889E+00  0.3888889E+00  0.2500000E-01
    1        1.315749   1.000000
    2        9.383100   1.000000
    3       13.307191   0.000000
    4       13.307324   0.000000
    5       14.826064   0.000000
    6       16.934998   0.000000
    7       33.082642   0.000000
    8       34.137537   0.000000
 
  0.0000000E+00  0.4444444E+00  0.4444444E+00  0.2500000E-01
    1        3.011492   1.000000
    2        7.103958   1.000000
    3       12.997818   0.000012
    4       12.997950   0.000012
    5       14.477483   0.000000
    6       16.590085   0.000000
    7       33.995064   0.000000
    8       35.435704   0.000000
 
  0.0000000E+00  0.5000000E+00  0.5000000E+00  0.2500000E-01
    1        4.615947   1.000000
    2        5.303832   1.000000
    3       12.894597   0.002827
    4       12.894728   0.002811
    5       14.361065   0.000000
    6       16.480301   0.000000
    7       34.343259   0.000000
    8       35.962113   0.000000
 
  0.0000000E+00  0.5000000E+00  0.5000000E+00  0.2500000E-01
    1        4.615947   1.000000
    2        5.303832   1.000000
    3       12.894597   0.002827
    4       12.894728   0.002811
    5       14.361065   0.000000
    6       16.480301   0.000000
    7       34.343263   0.000000
    8       35.962213   0.000000
 
  0.2777778E-01  0.5138889E+00  0.5138889E+00  0.2500000E-01
    1        4.629801   1.000000
    2        5.317311   1.000000
    3       12.522600   0.993677
    4       12.907506   0.001590
    5       14.626005   0.000000
    6       16.624039   0.000000
    7       34.254280   0.000000
    8       35.873962   0.000000
 
  0.5555556E-01  0.5277778E+00  0.5277778E+00  0.2500000E-01
    1        4.671361   1.000000
    2        5.357600   1.000000
    3       11.794663   1.000000
    4       12.945830   0.000240
    5       15.017897   0.000000
    6       17.070048   0.000000
    7       34.001179   0.000000
    8       35.627406   0.000000
 
  0.8333333E-01  0.5416667E+00  0.5416667E+00  0.2500000E-01
    1        4.740627   1.000000
    2        5.424211   1.000000
    3       10.983589   1.000000
    4       13.009683   0.000006
    5       15.301464   0.000000
    6       17.780713   0.000000
    7       33.617597   0.000000
    8       35.237103   0.000000
 
  0.1111111E+00  0.5555556E+00  0.5555556E+00  0.2500000E-01
    1        4.837592   1.000000
    2        5.516037   1.000000
    3       10.156737   1.000000
    4       13.098996   0.000000
    5       15.510744   0.000000
    6       18.654646   0.000000
    7       33.093661   0.000000
    8       34.689540   0.000000
 
  0.1388889E+00  0.5694444E+00  0.5694444E+00  0.2500000E-01
    1        4.962267   1.000000
    2        5.630961   1.000000
    3        9.337886   1.000000
    4       13.213733   0.000000
    5       15.697321   0.000000
    6       19.617299   0.000000
    7       32.559985   0.000000
    8       34.144441   0.000000
 
  0.1666667E+00  0.5833333E+00  0.5833333E+00  0.2500000E-01
    1        5.114625   1.000000
    2        5.763475   1.000000
    3        8.539736   1.000000
    4       13.353608   0.000000
    5       15.887379   0.000000
    6       20.627967   0.000000
    7       31.946941   0.000000
    8       33.551931   0.000000
 
  0.1944444E+00  0.5972222E+00  0.5972222E+00  0.2500000E-01
    1        5.294994   1.000000
    2        5.898311   1.000000
    3        7.786756   1.000000
    4       13.518815   0.000000
    5       16.096032   0.000000
    6       21.685904   0.000000
    7       31.362025   0.000000
    8       32.925239   0.000000
 
  0.2222222E+00  0.6111111E+00  0.6111111E+00  0.2500000E-01
    1        5.502744   1.000000
    2        5.972378   1.000000
    3        7.141767   1.000000
    4       13.709098   0.000000
    5       16.321474   0.000000
    6       22.750520   0.000000
    7       30.771873   0.000000
    8       32.282803   0.000000
 
  0.2500000E+00  0.6250000E+00  0.6250000E+00  0.2500000E-01
    1        5.738097   1.000000
    2        5.757750   1.000000
    3        6.833643   1.000000
    4       13.924074   0.000000
    5       16.561131   0.000000
    6       23.822268   0.000000
    7       30.146625   0.000000
    8       31.612680   0.000000
 
  0.3750000E+00  0.7500000E+00  0.3750000E+00  0.2500000E-01
    1        5.738097   1.000000
    2        5.757750   1.000000
    3        6.833643   1.000000
    4       13.924074   0.000000
    5       16.561131   0.000000
    6       23.822268   0.000000
    7       30.146625   0.000000
    8       31.612776   0.000000
 
  0.3333333E+00  0.6666667E+00  0.3333333E+00  0.2500000E-01
    1        3.884112   1.000000
    2        6.610055   1.000000
    3        7.447362   1.000000
    4       14.716869   0.000000
    5       17.455992   0.000000
    6       27.000415   0.000000
    7       28.475168   0.000000
    8       29.712523   0.000000
 
  0.2916667E+00  0.5833333E+00  0.2916667E+00  0.2500000E-01
    1        2.002189   1.000000
    2        7.729032   1.000000
    3        8.532451   1.000000
    4       15.719606   0.000000
    5       18.572195   0.000000
    6       26.964855   0.000000
    7       27.942696   0.000000
    8       28.393314   0.000000
 
  0.2500000E+00  0.5000000E+00  0.2500000E+00  0.2500000E-01
    1        0.337676   1.000000
    2        9.090769   1.000000
    3        9.862623   1.000000
    4       16.907220   0.000000
    5       19.894726   0.000000
    6       25.681829   0.000000
    7       26.347654   0.000000
    8       26.946645   0.000000
 
  0.2083333E+00  0.4166667E+00  0.2083333E+00  0.2500000E-01
    1       -1.085927   1.000000
    2       10.692202   1.000000
    3       11.406344   1.000000
    4       18.215990   0.000000
    5       21.394367   0.000000
    6       24.688807   0.000000
    7       24.962111   0.000000
    8       25.718725   0.000000
 
  0.1666667E+00  0.3333333E+00  0.1666667E+00  0.2500000E-01
    1       -2.260148   1.000000
    2       12.524478   0.993188
    3       13.138683   0.000000
    4       19.489225   0.000000
    5       23.014897   0.000000
    6       23.786835   0.000000
    7       24.219246   0.000000
    8       24.700090   0.000000
 
  0.1250000E+00  0.2500000E+00  0.1250000E+00  0.2500000E-01
    1       -3.177714   1.000000
    2       14.566152   0.000000
    3       15.024310   0.000000
    4       20.323520   0.000000
    5       22.899982   0.000000
    6       23.875212   0.000000
    7       24.402281   0.000000
    8       24.564416   0.000000
 
  0.8333333E-01  0.1666667E+00  0.8333333E-01  0.2500000E-01
    1       -3.835828   1.000000
    2       16.779363   0.000000
    3       17.018470   0.000000
    4       20.548294   0.000000
    5       22.264972   0.000000
    6       23.205516   0.000000
    7       24.354574   0.000000
    8       25.905888   0.000000
 
  0.4166667E-01  0.8333333E-01  0.4166667E-01  0.2500000E-01
    1       -4.231837   1.000000
    2       18.996564   0.000000
    3       19.020089   0.000000
    4       20.514084   0.000000
    5       21.882154   0.000000
    6       22.517333   0.000000
    7       23.034319   0.000000
    8       27.563393   0.000000
 
  0.0000000E+00  0.0000000E+00  0.0000000E+00  0.2500000E-01
    1       -4.364325   1.000000
    2       20.480019   0.000000
    3       20.480246   0.000000
    4       20.480246   0.000000
    5       21.725078   0.000000
    6       21.725285   0.000000
    7       21.725285   0.000000
    8       27.080150   0.000000
